##############################################################################
###      FullProf-generated mCIF output file   (version: May 2019)         ###
##############################################################################
 
# Please notify any error or suggestion to: 
#           Juan Rodriguez-Carvajal (jrc@ill.eu)
# Improvements will be progressively added as needed.
 
#      Date: 21/04/2025  Time: 12:59:23.166
 
#=============================================================================
 data_global
#=============================================================================
 
data_
_audit_creation_date  21/04/2025  
_audit_creation_method  "FullProf Suite"
 
_citation_journal_abbrev ?
_citation_journal_volume ?
_citation_page_first     ?
_citation_page_last      ?
_citation_article_id     ?
_citation_year           ?
loop_
_citation_author_name
?

_atomic_positions_source_database_code_ICSD  ?
_atomic_positions_source_other    .  

_Neel_temperature  ?
_magn_diffrn_temperature  ?
_exptl_crystal_magnetic_properties_details
;
;
_active_magnetic_irreps_details
;
;
 
_magnetic_space_group_standard_setting  'no'
_parent_space_group.name_H-M  "P6/mmm"
_parent_space_group.IT_number  191

_space_group_magn.number_BNS 191.240
_space_group_magn.name_BNS   P6/mm'm'
_parent_space_group.transform_Pp_abc  ''
_parent_space_group.child_transform_Pp_abc  'a,b,c;0,0,0'
_magnetic_space_group.transform_BNS_Pp_abc  'a,b,c;0,0,0'
_space_group_magn.number_OG  ?
_space_group_magn.name_OG    ?


_cell_length_a     5.52001
_cell_length_b     5.52001
_cell_length_c     9.15201
_cell_angle_alpha  90.0000
_cell_angle_beta   90.0000
_cell_angle_gamma  120.000


loop_
    _space_group_symop_magn_operation.id
    _space_group_symop_magn_operation.xyz
   1  x,y,z,+1
   2  -y,-x,z,-1
   3  x,x-y,-z,-1
   4  -x+y,y,-z,-1
   5  -y,-x,-z,-1
   6  -y,x-y,-z,+1
   7  x,x-y,z,-1
   8  -x+y,y,z,-1
   9  -y,x-y,z,+1
  10  -x,-y,z,+1
  11  -x+y,-x,z,+1
  12  x-y,x,z,+1
  13  -x,-y,-z,+1
  14  y,x,-z,-1
  15  -x,-x+y,z,-1
  16  x-y,-y,z,-1
  17  y,x,z,-1
  18  y,-x+y,z,+1
  19  -x,-x+y,-z,-1
  20  x-y,-y,-z,-1
  21  y,-x+y,-z,+1
  22  x,y,-z,+1
  23  x-y,x,-z,+1
  24  -x+y,-x,-z,+1

loop_
    _atom_site_label
    _atom_site_type_symbol
    _atom_site_fract_x
    _atom_site_fract_y
    _atom_site_fract_z
    _atom_site_U_iso_or_equiv
    _atom_site_occupancy
    _atom_site_adp_type
 Ho1 Ho  0.00000  0.00000  0.00000  0.01267  1.00000 Uiso
 V V  0.50000  0.00000  0.25300  0.01267  1.00000 Uiso
 Sn1 Sn  0.33333  0.66667  0.50000  0.01267  1.00000 Uiso
 Sn2 Sn  0.00000  0.00000  0.33000  0.01267  1.00000 Uiso
 Sn3 Sn  0.33333  0.66667  0.00000  0.01267  1.00000 Uiso
 

loop_
    _atom_site_moment.label
    _atom_site_moment.crystalaxis_x
    _atom_site_moment.crystalaxis_y
    _atom_site_moment.crystalaxis_z
 Ho1  0.00000  0.00000 -4.8(4)
 
# Spherical components of magnetic moments (angles in degrees)
# Commented because current programs as VESTA, JMOL, etc. are unable to interpret them
#loop_
#   _atom_site_moment.label
#   _atom_site_moment.spherical_modulus
#   _atom_site_moment.spherical_azimuthal
#   _atom_site_moment.spherical_polar
#  Ho1  4.8(4)  0.00000  180(-2147483647)

